
    -----------------------------------------------------------------------
          Psi4: An Open-Source Ab Initio Electronic Structure Package
                               Psi4 1.2a1.dev547 

                         Git: Rev {master} f5560a0 


    R. M. Parrish, L. A. Burns, D. G. A. Smith, A. C. Simmonett,
    A. E. DePrince III, E. G. Hohenstein, U. Bozkaya, A. Yu. Sokolov,
    R. Di Remigio, R. M. Richard, J. F. Gonthier, A. M. James,
    H. R. McAlexander, A. Kumar, M. Saitow, X. Wang, B. P. Pritchard,
    P. Verma, H. F. Schaefer III, K. Patkowski, R. A. King, E. F. Valeev,
    F. A. Evangelista, J. M. Turney, T. D. Crawford, and C. D. Sherrill,
    J. Chem. Theory Comput. 13(7) pp 3185--3197 (2017).
    (doi: 10.1021/acs.jctc.7b00174)

    -----------------------------------------------------------------------


    Psi4 started on: Tuesday, 19 September 2017 07:55PM

    Process ID:  73006
    PSIDATADIR: /home/akumar1/newriver/installed/psi4/latest_psi4/share/psi4
    Memory:     500.0 MiB
    Threads:    1
    
  ==> Input File <==

--------------------------------------------------------------------------
# PYTHONPATH must include directory above plugin directory.
#     Define either externally or here, then import plugin.
sys.path.insert(0, './../../')
import fvno

molecule {
O
H 1 R
H 1 R 2 A

R = .9
A = 104.5
}

set {
  basis sto-3g
}

set fvno {
  print 1
}

e,wfn = energy('fvno', return_wfn='true')
cctransort(wfn)
ccenergy(wfn)
cchbar(wfn)
set_global_option('WFN','CCSD') # cclambda expects a correlated wfn method         
set_global_option('DERTYPE','RESPONSE') # to account for extra terms in cclambda needed for response 
cclambda(wfn)
set ccresponse{
 property polarizability
}
ccresponse(wfn)

fvno.exampleFN()
--------------------------------------------------------------------------
/home/akumar1/newriver/reduced_scaling/fvno/fvno/fvno.so loaded.

*** tstart() called on nrlogin1
*** at Tue Sep 19 19:55:09 2017

   => Loading Basis Set <=

    Name: STO-3G
    Role: ORBITAL
    Keyword: BASIS
    atoms 1   entry O          line    81 file /home/akumar1/newriver/installed/psi4/latest_psi4/share/psi4/basis/sto-3g.gbs 
    atoms 2-3 entry H          line    19 file /home/akumar1/newriver/installed/psi4/latest_psi4/share/psi4/basis/sto-3g.gbs 

    There are an even number of electrons - assuming singlet.
    Specify the multiplicity in the molecule input block.


         ---------------------------------------------------------
                                   SCF
            by Justin Turney, Rob Parrish, Andy Simmonett
                             and Daniel Smith
                              RHF Reference
                        1 Threads,    500 MiB Core
         ---------------------------------------------------------

  ==> Geometry <==

    Molecular point group: c2v
    Full point group: C2v

    Geometry (in Angstrom), charge = 0, multiplicity = 1:

       Center              X                  Y                   Z               Mass       
    ------------   -----------------  -----------------  -----------------  -----------------
           O          0.000000000000     0.000000000000    -0.061664597379    15.994914619560
           H          0.000000000000    -0.711620616369     0.489330954652     1.007825032070
           H          0.000000000000     0.711620616369     0.489330954652     1.007825032070

  Running in c2v symmetry.

  Rotational constants: A =     31.01920  B =     16.51522  C =     10.77722 [cm^-1]
  Rotational constants: A = 929932.18007  B = 495113.78280  C = 323092.90466 [MHz]
  Nuclear repulsion =    9.779406144413407

  Charge       = 0
  Multiplicity = 1
  Electrons    = 10
  Nalpha       = 5
  Nbeta        = 5

  ==> Algorithm <==

  SCF Algorithm Type is PK.
  DIIS enabled.
  MOM disabled.
  Fractional occupation disabled.
  Guess Type is SAD.
  Energy threshold   = 1.00e-08
  Density threshold  = 1.00e-08
  Integral threshold = 0.00e+00

  ==> Primary Basis <==

  Basis Set: STO-3G
    Blend: STO-3G
    Number of shells: 5
    Number of basis function: 7
    Number of Cartesian functions: 7
    Spherical Harmonics?: true
    Max angular momentum: 1

  ==> Pre-Iterations <==

   -------------------------------------------------------
    Irrep   Nso     Nmo     Nalpha   Nbeta   Ndocc  Nsocc
   -------------------------------------------------------
     A1         4       4       0       0       0       0
     A2         0       0       0       0       0       0
     B1         1       1       0       0       0       0
     B2         2       2       0       0       0       0
   -------------------------------------------------------
    Total       7       7       5       5       5       0
   -------------------------------------------------------

  ==> Integral Setup <==

  Using in-core PK algorithm.
   Calculation information:
      Number of atoms:                   3
      Number of AO shells:               5
      Number of primitives:             15
      Number of atomic orbitals:         7
      Number of basis functions:         7

      Integral cutoff                 1.00e-12
      Number of threads:                 1

  Performing in-core PK
  Using 812 doubles for integral storage.
  We computed 120 shell quartets total.
  Whereas there are 120 unique shell quartets.
  ==> DiskJK: Disk-Based J/K Matrices <==

    J tasked:                  Yes
    K tasked:                  Yes
    wK tasked:                  No
    Memory (MB):               375
    Schwarz Cutoff:          1E-12

    OpenMP threads:              1
  Minimum eigenvalue in the overlap matrix is 3.0451397022E-01.
  Using Symmetric Orthogonalization.

  SCF Guess: Superposition of Atomic Densities via on-the-fly atomic UHF.

  ==> Iterations <==

                        Total Energy        Delta E     RMS |[F,P]|

   @RHF iter   0:   -74.96110675442274   -7.49611e+01   3.73940e-01 
   @RHF iter   1:   -74.90824916986145    5.28576e-02   4.69527e-02 
   @RHF iter   2:   -74.94370393731214   -3.54548e-02   7.25560e-03 DIIS
   @RHF iter   3:   -74.94479975435434   -1.09582e-03   2.75717e-03 DIIS
   @RHF iter   4:   -74.94501964868839   -2.19894e-04   2.44569e-04 DIIS
   @RHF iter   5:   -74.94502100736261   -1.35867e-06   1.39726e-05 DIIS
   @RHF iter   6:   -74.94502101052565   -3.16304e-09   8.65475e-07 DIIS
   @RHF iter   7:   -74.94502101053807   -1.24203e-11   1.68548e-08 DIIS
   @RHF iter   8:   -74.94502101053811   -4.26326e-14   4.91502e-11 DIIS

  ==> Post-Iterations <==

    Orbital Energies (a.u.)
    -----------------------

    Doubly Occupied:                                                      

       1A1   -20.236192     2A1    -1.300480     1B2    -0.649309  
       3A1    -0.460194     1B1    -0.396298  

    Virtual:                                                              

       4A1     0.664827     2B2     0.813314  

    Final Occupation by Irrep:
             A1    A2    B1    B2 
    DOCC [     3,    0,    1,    1 ]

  Energy converged.

  @RHF Final Energy:   -74.94502101053811

   => Energetics <=

    Nuclear Repulsion Energy =              9.7794061444134073
    One-Electron Energy =                -123.3639077692178603
    Two-Electron Energy =                  38.6394806142663398
    PCM Polarization Energy =               0.0000000000000000
    Total Energy =                        -74.9450210105381132

    Alert: EFP and PCM quantities not currently incorporated into SCF psivars.

Properties will be evaluated at   0.000000,   0.000000,   0.000000 Bohr

Properties computed using the SCF density matrix

  Nuclear Dipole Moment: (a.u.)
     X:     0.0000      Y:     0.0000      Z:     0.9172

  Electronic Dipole Moment: (a.u.)
     X:     0.0000      Y:     0.0000      Z:    -0.2095

  Dipole Moment: (a.u.)
     X:     0.0000      Y:     0.0000      Z:     0.7076     Total:     0.7076

  Dipole Moment: (Debye)
     X:     0.0000      Y:     0.0000      Z:     1.7986     Total:     1.7986


*** tstop() called on nrlogin1 at Tue Sep 19 19:55:09 2017
Module time:
	user time   =       0.31 seconds =       0.01 minutes
	system time =       0.01 seconds =       0.00 minutes
	total time  =          0 seconds =       0.00 minutes
Total time:
	user time   =       0.31 seconds =       0.01 minutes
	system time =       0.01 seconds =       0.00 minutes
	total time  =          0 seconds =       0.00 minutes
 MINTS: Wrapper to libmints.
   by Justin Turney

   Calculation information:
      Number of threads:                 1
      Number of atoms:                   3
      Number of AO shells:               5
      Number of SO shells:               4
      Number of primitives:             15
      Number of atomic orbitals:         7
      Number of basis functions:         7

      Number of irreps:                  4
      Integral cutoff                 0.00e+00
      Number of functions per irrep: [   4    0    1    2 ]

 OEINTS: Overlap, kinetic, potential, dipole, and quadrupole integrals
         stored in file 35.

      Computing two-electron integrals...done
      Computed 138 non-zero two-electron integrals.
        Stored in file 33.


Reading options from the FVNO block
Calling plugin fvno.so.


	Presorting SO-basis two-electron integrals.
	Sorting File: SO Ints (nn|nn) nbuckets = 1
	Transforming the one-electron integrals and constructing Fock matrices
	Starting first half-transformation.
	Sorting half-transformed integrals.
	First half integral transformation complete.
	Starting second half-transformation.
	Two-electron integral transformation complete.

*** tstart() called on nrlogin1
*** at Tue Sep 19 19:55:09 2017


	Wfn Parameters:
	--------------------
	Wavefunction         = SCF
	Number of irreps     = 4
	Number of MOs        = 7
	Number of active MOs = 7
	AO-Basis             = NONE
	Semicanonical        = false
	Reference            = RHF
	Print Level          = 1

	IRREP	# MOs	# FZDC	# DOCC	# SOCC	# VIRT	# FZVR
	-----	-----	------	------	------	------	------
	 A1	   4	    0	    3	    0	    1	    0
	 A2	   0	    0	    0	    0	    0	    0
	 B1	   1	    0	    1	    0	    0	    0
	 B2	   2	    0	    1	    0	    1	    0
	Transforming integrals...
	IWL integrals will be deleted.
	(OO|OO)...
	Presorting SO-basis two-electron integrals.
	Sorting File: SO Ints (nn|nn) nbuckets = 1
	Transforming the one-electron integrals and constructing Fock matrices
	Starting first half-transformation.
	Sorting half-transformed integrals.
	First half integral transformation complete.
	Starting second half-transformation.
	Two-electron integral transformation complete.
	(OO|OV)...
	Starting second half-transformation.
	Two-electron integral transformation complete.
	(OO|VV)...
	Starting second half-transformation.
	Two-electron integral transformation complete.
	(OV|OO)...
	Starting first half-transformation.
	Sorting half-transformed integrals.
	First half integral transformation complete.
	Starting second half-transformation.
	Two-electron integral transformation complete.
	(OV|OV)...
	Starting second half-transformation.
	Two-electron integral transformation complete.
	(OV|VV)...
	Starting second half-transformation.
	Two-electron integral transformation complete.
	(VV|OO)...
	Starting first half-transformation.
	Sorting half-transformed integrals.
	First half integral transformation complete.
	Starting second half-transformation.
	Two-electron integral transformation complete.
	(VV|OV)...
	Starting second half-transformation.
	Two-electron integral transformation complete.
	(VV|VV)...
	Starting second half-transformation.
	Two-electron integral transformation complete.
	Frozen core energy     =      0.00000000000000

	Size of irrep 0 of <ab|cd> integrals:      0.000 (MW) /      0.000 (MB)
	Size of irrep 1 of <ab|cd> integrals:      0.000 (MW) /      0.000 (MB)
	Size of irrep 2 of <ab|cd> integrals:      0.000 (MW) /      0.000 (MB)
	Size of irrep 3 of <ab|cd> integrals:      0.000 (MW) /      0.000 (MB)
	Total:                                     0.000 (MW) /      0.000 (MB)

	Size of irrep 0 of <ia|bc> integrals:      0.000 (MW) /      0.000 (MB)
	Size of irrep 1 of <ia|bc> integrals:      0.000 (MW) /      0.000 (MB)
	Size of irrep 2 of <ia|bc> integrals:      0.000 (MW) /      0.000 (MB)
	Size of irrep 3 of <ia|bc> integrals:      0.000 (MW) /      0.000 (MB)
	Total:                                     0.000 (MW) /      0.000 (MB)

	Size of irrep 0 of tijab amplitudes:       0.000 (MW) /      0.000 (MB)
	Size of irrep 1 of tijab amplitudes:       0.000 (MW) /      0.000 (MB)
	Size of irrep 2 of tijab amplitudes:       0.000 (MW) /      0.000 (MB)
	Size of irrep 3 of tijab amplitudes:       0.000 (MW) /      0.000 (MB)
	Total:                                     0.000 (MW) /      0.000 (MB)

	Nuclear Rep. energy          =      9.77940614441341
	SCF energy                   =    -74.94502101053811
	One-electron energy          =   -123.36390777020425
	Two-electron energy          =     38.63948061525276
	Reference energy             =    -74.94502101053808

*** tstop() called on nrlogin1 at Tue Sep 19 19:55:10 2017
Module time:
	user time   =       0.02 seconds =       0.00 minutes
	system time =       0.01 seconds =       0.00 minutes
	total time  =          1 seconds =       0.02 minutes
Total time:
	user time   =       0.36 seconds =       0.01 minutes
	system time =       0.02 seconds =       0.00 minutes
	total time  =          1 seconds =       0.02 minutes

*** tstart() called on nrlogin1
*** at Tue Sep 19 19:55:10 2017

            **************************
            *                        *
            *        CCENERGY        *
            *                        *
            **************************

    Nuclear Rep. energy (wfn)     =    9.779406144413407
    SCF energy          (wfn)     =  -74.945021010538113
    Reference energy    (file100) =  -74.945021010538085

    Input parameters:
    -----------------
    Wave function   =     SCF
    Reference wfn   =     RHF
    Brueckner       =     No
    Memory (Mbytes) =     524.3
    Maxiter         =     50
    R_Convergence   =     1.0e-07
    E_Convergence   =     1.0e-06
    Restart         =     Yes
    DIIS            =     Yes
    AO Basis        =     NONE
    ABCD            =     NEW
    Cache Level     =     2
    Cache Type      =     LOW
    Print Level     =     1
    Num. of threads =     1
    # Amps to Print =     10
    Print MP2 Amps? =     No
    Analyze T2 Amps =     No
    Print Pair Ener =     No
    Local CC        =     No
    SCS-MP2         =     False
    SCSN-MP2        =     False
    SCS-CCSD        =     False

MP2 correlation energy -0.0310825552021348
                Solving CC Amplitude Equations
                ------------------------------
  Iter             Energy              RMS        T1Diag      D1Diag    New D1Diag    D2Diag
  ----     ---------------------    ---------   ----------  ----------  ----------   --------
     0        -0.031082555202135    0.000e+00    0.000000    0.000000    0.000000    0.072742
     1        -0.039011859399901    2.903e-02    0.001727    0.004820    0.004820    0.092156
     2        -0.042504039100616    1.005e-02    0.003043    0.008895    0.008895    0.101261
     3        -0.042575077033398    1.291e-03    0.003363    0.010074    0.010074    0.101659
     4        -0.042581503177738    2.736e-04    0.003445    0.010381    0.010381    0.101695
     5        -0.042579182196150    3.384e-05    0.003454    0.010414    0.010414    0.101690
     6        -0.042579637918459    5.357e-06    0.003456    0.010418    0.010418    0.101692
     7        -0.042579508984887    1.100e-06    0.003456    0.010419    0.010419    0.101692
     8        -0.042579522304873    1.587e-07    0.003456    0.010419    0.010419    0.101692
     9        -0.042579521815679    2.694e-08    0.003456    0.010419    0.010419    0.101692

    Iterations converged.


    Largest TIA Amplitudes:
              2   0         0.0103717946
              4   1        -0.0032954980
              1   0        -0.0009883860
              0   0         0.0000231877

    Largest TIjAb Amplitudes:
      4   4   1   1        -0.0705752321
      2   4   0   1         0.0385484848
      4   2   1   0         0.0385484848
      4   4   0   0        -0.0381545659
      2   2   1   1        -0.0376226134
      2   2   0   0        -0.0361569686
      1   1   0   0        -0.0320028113
      1   4   0   1        -0.0304713469
      4   1   1   0        -0.0304713469
      1   2   0   0         0.0301386397

    SCF energy       (wfn)                    =  -74.945021010538113
    Reference energy (file100)                =  -74.945021010538085

    Opposite-spin MP2 correlation energy      =   -0.029377589103482
    Same-spin MP2 correlation energy          =   -0.001704966098653
    MP2 correlation energy                    =   -0.031082555202135
      * MP2 total energy                      =  -74.976103565740218

    Opposite-spin CCSD correlation energy     =   -0.041037807393299
    Same-spin CCSD correlation energy         =   -0.001541714422093
    CCSD correlation energy                   =   -0.042579521815679
      * CCSD total energy                     =  -74.987600532353767


*** tstop() called on nrlogin1 at Tue Sep 19 19:55:12 2017
Module time:
	user time   =       0.11 seconds =       0.00 minutes
	system time =       0.11 seconds =       0.00 minutes
	total time  =          2 seconds =       0.03 minutes
Total time:
	user time   =       0.47 seconds =       0.01 minutes
	system time =       0.13 seconds =       0.00 minutes
	total time  =          3 seconds =       0.05 minutes

*** tstart() called on nrlogin1
*** at Tue Sep 19 19:55:12 2017


			**************************
			*                        *
			*         CCHBAR         *
			*                        *
			**************************


*** tstop() called on nrlogin1 at Tue Sep 19 19:55:12 2017
Module time:
	user time   =       0.01 seconds =       0.00 minutes
	system time =       0.01 seconds =       0.00 minutes
	total time  =          0 seconds =       0.00 minutes
Total time:
	user time   =       0.48 seconds =       0.01 minutes
	system time =       0.14 seconds =       0.00 minutes
	total time  =          3 seconds =       0.05 minutes

*** tstart() called on nrlogin1
*** at Tue Sep 19 19:55:12 2017


			**************************
			*        CCLAMBDA        *
			**************************


	Nuclear Rep. energy (wfn)     =    9.779406144413407
	Reference           (wfn)     =                    0
	SCF energy          (wfn)     =  -74.945021010538113
	Reference energy    (CC_INFO) =  -74.945021010538085
	CCSD energy         (CC_INFO) =   -0.042579521815679
	Total CCSD energy   (CC_INFO) =  -74.987600532353767

	Input parameters:
	-----------------
	Maxiter           =     50
	Convergence       = 1.0e-07
	Restart           =     No
	Cache Level       =     2
	Model III         =     No
	DIIS              =     Yes
	AO Basis          =     No
	ABCD              =     NEW
	Local CC          =     No
	Paramaters for left-handed eigenvectors:
	    Irr   Root  Ground-State?    EOM energy        R0
	  1   0     0        Yes       0.0000000000   1.0000000000
	Labels for eigenvector 1:
	LIA 0 -1, Lia 0 -1, LIJAB 0 -1, Lijab 0 -1, LIjAb 0 -1, 2LIjAb - LIjbA 0 -1
	Deleting old CC_LAMBDA data.
	Symmetry of left-hand state: A1
	Symmetry of left-hand eigenvector: A1

	          Solving Lambda Equations
	          ------------------------
	Iter     PseudoEnergy or Norm         RMS  
	----     ---------------------     --------
	   0        -0.042596308504885    0.000e+00
	   1        -0.042256259040037    2.278e-03
	   2        -0.042118271040952    5.746e-04
	   3        -0.042101341525881    8.548e-05
	   4        -0.042101438270327    1.668e-05
	   5        -0.042101462171562    2.839e-06
	   6        -0.042101471137951    2.871e-07
	   7        -0.042101471663799    5.312e-08

	Largest LIA Amplitudes:
	          2   0         0.0092530528
	          4   1        -0.0020381728
	          1   0        -0.0002183455
	          0   0         0.0000235048

	Largest LIjAb Amplitudes:
	  4   4   1   1        -0.0697684823
	  2   4   0   1         0.0380854369
	  4   2   1   0         0.0380854369
	  4   4   0   0        -0.0376382916
	  2   2   1   1        -0.0371316175
	  2   2   0   0        -0.0358092099
	  1   1   0   0        -0.0317190069
	  1   4   0   1        -0.0300982968
	  4   1   1   0        -0.0300982968
	  1   2   0   0         0.0298003272

	Iterations converged.

	Overlap <L|e^T> =        0.97937540178

*** tstop() called on nrlogin1 at Tue Sep 19 19:55:12 2017
Module time:
	user time   =       0.02 seconds =       0.00 minutes
	system time =       0.02 seconds =       0.00 minutes
	total time  =          0 seconds =       0.00 minutes
Total time:
	user time   =       0.50 seconds =       0.01 minutes
	system time =       0.16 seconds =       0.00 minutes
	total time  =          3 seconds =       0.05 minutes

*** tstart() called on nrlogin1
*** at Tue Sep 19 19:55:12 2017

			**************************
			*                        *
			*       ccresponse       *
			*                        *
			**************************

	Input parameters:
	-----------------
	Property         =    POLARIZABILITY
	Reference wfn    =    RHF
	Memory (Mbytes)  =    524.3
	Cache Level      =    0
	Print Level      =    1
	Maxiter          =    50
	Convergence      =    1.0e-07
	Restart          =    Allowed
	DIIS             =    Yes
	Model III        =    No
	Linear Model     =    No
	ABCD             =    NEW
	Irrep X          =    B1
	Irrep Y          =    B2
	Irrep Z          =    A1
	Irrep RX         =    B2
	Irrep RY         =    B1
	Irrep RZ         =    A2
	Gauge            =    LENGTH
	Applied field  0 =  0.000
	Analyze X2 Amps  =    No
	Local CC         =    No


	Computing Mu_X-Perturbed Wave Function (0.000 E_h).
	Iter   Pseudopolarizability       RMS 
	----   --------------------   -----------
	   0         0.020453092684
	   1         0.030982702498    3.553e-02
	   2         0.043467928977    1.976e-02
	   3         0.043957407429    1.776e-03
	   4         0.043957792453    1.333e-04
	   5         0.043956735293    8.546e-06
	   6         0.043956809155    9.574e-07
	   7         0.043956823618    1.645e-07
	-----------------------------------------
	Converged Mu_X-Perturbed Wfn to 3.238e-08

	Computing Mu_Y-Perturbed Wave Function (0.000 E_h).
	Iter   Pseudopolarizability       RMS 
	----   --------------------   -----------
	   0         2.798398100324
	   1         3.731073888585    2.480e-01
	   2         4.249181745888    9.273e-02
	   3         4.257923389101    9.667e-03
	   4         4.258108964089    1.173e-03
	   5         4.258145314219    2.006e-04
	   6         4.258137095658    2.030e-05
	   7         4.258136888653    4.066e-06
	   8         4.258136852069    3.598e-07
	-----------------------------------------
	Converged Mu_Y-Perturbed Wfn to 6.879e-08

	Computing Mu_Z-Perturbed Wave Function (0.000 E_h).
	Iter   Pseudopolarizability       RMS 
	----   --------------------   -----------
	   0         1.351105772190
	   1         1.664577172991    1.349e-01
	   2         1.805353294295    5.264e-02
	   3         1.816160215322    1.142e-02
	   4         1.816233502215    1.319e-03
	   5         1.816218619172    2.083e-04
	   6         1.816218458114    2.817e-05
	   7         1.816218902439    2.363e-06
	   8         1.816218907339    3.561e-07
	-----------------------------------------
	Converged Mu_Z-Perturbed Wfn to 9.233e-08

	Computing <<Mu;Mu>_(0.000) tensor.

                 CCSD Dipole Polarizability (Length Gauge) [(e^2 a0^2)/E_h]:
  -------------------------------------------------------------------------
   Evaluated at omega = 0.000000 E_h (Inf nm, 0.000 eV,     0.00 cm-1)
  -------------------------------------------------------------------------

                   0                     1                     2        

    0      0.043243223209324     0.000000000000000     0.000000000000000
    1      0.000000000000000     4.178766588600200     0.000000000000000
    2      0.000000000000000     0.000000000000000     1.803367600138634

	alpha_(0.000) =       2.008459137316 a.u.

*** tstop() called on nrlogin1 at Tue Sep 19 19:55:13 2017
Module time:
	user time   =       0.06 seconds =       0.00 minutes
	system time =       0.06 seconds =       0.00 minutes
	total time  =          1 seconds =       0.02 minutes
Total time:
	user time   =       0.56 seconds =       0.01 minutes
	system time =       0.22 seconds =       0.00 minutes
	total time  =          4 seconds =       0.07 minutes

*** Psi4 exiting successfully. Buy a developer a beer!
